/*--------------------------------*- C++ -*----------------------------------*\
| =========                 |                                                 |
| \\      /  F ield         | foam-extend: Open Source CFD                    |
|  \\    /   O peration     | Version:     4.1                                |
|   \\  /    A nd           | Web:         http://www.foam-extend.org         |
|    \\/     M anipulation  |                                                 |
\*---------------------------------------------------------------------------*/
FoamFile
{
    version     2.0;
    format      ascii;
    class       polyBoundaryMesh;
    location    "constant/polyMesh";
    object      boundary;
}
// * * * * * * * * * * * * * * * * * * * * * * * * * * * * * * * * * * * * * //

5
(
    inlet
    {
        type            patch;
        nFaces          50;
        startFace       14805;
    }
    outlet
    {
        type            patch;
        nFaces          55;
        startFace       14855;
    }
    upperWall
    {
        type            wall;
        nFaces          140;
        startFace       14910;
    }
    lowerWall
    {
        type            wall;
        nFaces          145;
        startFace       15050;
    }
    frontAndBack
    {
        type            empty;
        nFaces          15000;
        startFace       15195;
    }
)


// ************************************************************************* //
