/*--------------------------------*- C++ -*----------------------------------*\
| =========                 |                                                 |
| \\      /  F ield         | foam-extend: Open Source CFD                    |
|  \\    /   O peration     | Version:     5.0                                |
|   \\  /    A nd           | Web:         http://www.foam-extend.org         |
|    \\/     M anipulation  |                                                 |
\*---------------------------------------------------------------------------*/
FoamFile
{
    version     2.0;
    format      ascii;
    class       volScalarField;
    location    "0";
    object      nut;
}
// * * * * * * * * * * * * * * * * * * * * * * * * * * * * * * * * * * * * * //

dimensions      [0 2 -1 0 0 0 0];

internalField   nonuniform List<scalar>

boundaryField
{
	inlet
	{
		type		calculated;
	}
	outlet
	{
		type		calculated;
	}
	upperWall
	{
		type		nutkWallFunction;
		value		uniform 0;
	}
	lowerWall
	{
		type		nutkWallFunction;
		value		uniform 0;
	}
	frontAndBack
	{
		type		empty;
	}
}